# vtk DataFile Version 3.0
model R-SWMS
ASCII
DATASET POLYDATA
POINTS    9678 float
   0.000E+00  0.000E+00 -2.000E+00 
   0.000E+00  2.500E-01 -2.250E+00 
   3.366E-02  1.946E+00 -3.877E+00 
   4.298E-02  2.486E+00 -6.122E+00 
   2.141E-02  2.672E+00 -8.418E+00 
  -1.237E-01  2.740E+00 -1.071E+01 
  -1.045E-02  4.537E-01 -4.276E+00 
   1.231E-01  2.727E-01 -4.302E+00 
  -3.258E-01  3.432E-01 -4.272E+00 
  -1.140E-01  2.782E+00 -1.300E+01 
   9.507E-03  2.801E+00 -1.528E+01 
  -1.484E-01  8.638E-01 -6.521E+00 
   2.677E-02  5.752E-01 -6.565E+00 
  -6.454E-01  6.019E-01 -6.521E+00 
   1.323E-01  2.796E+00 -1.756E+01 
   2.219E-02  1.109E+00 -8.781E+00 
  -1.493E-02  9.504E-01 -8.814E+00 
  -1.111E+00  7.868E-01 -8.746E+00 
   1.684E-01  2.643E+00 -1.983E+01 
   3.840E-01  1.207E+00 -1.102E+01 
  -1.818E-01  1.295E+00 -1.106E+01 
  -1.490E+00  9.543E-01 -1.098E+01 
   1.290E-01  2.730E-01 -4.301E+00 
  -6.295E-02 -4.902E-01 -4.268E+00 
   1.836E-01  2.597E+00 -2.210E+01 
   5.856E-01  1.513E+00 -1.326E+01 
  -5.224E-01  1.717E+00 -1.326E+01 
  -1.794E+00  1.293E+00 -1.320E+01 
   2.006E-01  2.522E+00 -2.436E+01 
   7.833E-01  1.820E+00 -1.550E+01 
  -7.022E-01  2.172E+00 -1.547E+01 
  -2.077E+00  1.608E+00 -1.543E+01 
   4.913E-01  5.257E-01 -6.520E+00 
  -4.352E-01 -9.295E-01 -6.456E+00 
  -1.866E-01  2.265E+00 -6.391E+00 
   1.526E-01  2.506E+00 -2.662E+01 
   1.059E+00  2.097E+00 -1.772E+01 
  -9.694E-01  2.526E+00 -1.768E+01 
  -2.250E+00  1.948E+00 -1.765E+01 
   7.448E-01  8.420E-01 -8.741E+00 
  -6.746E-01 -1.109E+00 -8.693E+00 
  -3.311E-01  2.510E+00 -8.656E+00 
   1.863E-01  2.423E+00 -2.887E+01 
   1.318E+00  2.382E+00 -1.994E+01 
  -1.208E+00  2.852E+00 -1.990E+01 
  -2.401E+00  2.249E+00 -1.988E+01 
   1.098E+00  1.079E+00 -1.095E+01 
  -1.022E+00 -1.377E+00 -1.090E+01 
  -4.485E-01  2.011E+00 -6.724E+00 
  -2.137E-01  2.368E+00 -1.094E+01 
   1.278E-01  2.503E+00 -3.111E+01 
   1.567E+00  2.665E+00 -2.215E+01 
  -1.564E+00  2.965E+00 -2.211E+01 
  -2.481E+00  2.681E+00 -2.208E+01 
   1.515E+00  1.345E+00 -1.314E+01 
  -1.142E+00 -1.766E+00 -1.311E+01 
  -7.271E-01  1.741E+00 -7.053E+00 
  -7.591E-01  2.382E+00 -8.869E+00 
  -3.331E-01  2.479E+00 -1.323E+01 
   1.249E-01  2.518E+00 -3.335E+01 
   1.828E+00  2.949E+00 -2.436E+01 
  -1.965E+00  3.149E+00 -2.431E+01 
  -2.608E+00  3.178E+00 -2.426E+01 
   1.780E+00  1.690E+00 -1.534E+01 
  -1.218E+00 -2.215E+00 -1.530E+01 
  -1.004E+00  1.474E+00 -7.409E+00 
  -1.133E+00  2.205E+00 -9.167E+00 
  -3.021E-01  1.948E+00 -1.118E+01 
   3.613E-02  3.173E+00 -1.549E+01 
   1.541E-01  2.506E+00 -3.558E+01 
  -4.426E-01  6.767E-01 -6.749E+00 
   2.126E+00  2.837E+00 -2.657E+01 
  -3.405E-01  5.612E-01 -6.762E+00 
  -2.341E+00  3.365E+00 -2.650E+01 
  -5.335E-01  2.983E-01 -6.784E+00 
  -2.704E+00  3.657E+00 -2.644E+01 
   2.175E+00  2.019E+00 -1.751E+01 
  -1.324E+00 -2.558E+00 -1.751E+01 
  -1.282E+00  1.201E+00 -7.783E+00 
  -1.538E+00  2.032E+00 -9.455E+00 
  -4.249E-01  1.525E+00 -1.144E+01 
  -5.811E-01  2.139E+00 -1.349E+01 
   5.019E-01  2.841E+00 -1.775E+01 
   2.157E-01  2.488E+00 -3.781E+01 
  -3.536E-01  1.142E+00 -9.036E+00 
   2.472E+00  2.729E+00 -2.877E+01 
  -3.392E-01  7.604E-01 -9.071E+00 
  -2.684E+00  3.563E+00 -2.869E+01 
  -8.921E-01  5.245E-01 -9.046E+00 
  -2.701E+00  4.039E+00 -2.864E+01 
   2.565E+00  1.880E+00 -1.970E+01 
  -1.324E+00 -3.017E+00 -1.969E+01 
  -1.583E+00  9.231E-01 -8.158E+00 
  -1.958E+00  1.861E+00 -9.750E+00 
  -5.518E-01  1.095E+00 -1.171E+01 
  -8.470E-01  1.795E+00 -1.375E+01 
   6.634E-02  3.598E+00 -1.574E+01 
  -7.763E-01  4.255E-01 -7.012E+00 
  -7.719E-01  5.040E-01 -6.995E+00 
  -4.123E-01 -1.002E-01 -7.048E+00 
   2.804E-02 -2.387E-02  0.000E+00 
   2.798E-01  2.249E+00 -2.003E+01 
   1.924E-01  2.599E+00 -4.003E+01 
   4.686E-01  1.599E+00 -1.122E+01 
   2.742E+00  2.859E+00 -3.097E+01 
  -4.617E-01  1.048E+00 -1.130E+01 
  -2.864E+00  3.250E+00 -3.088E+01 
  -1.223E+00  7.439E-01 -1.127E+01 
  -3.071E+00  4.247E+00 -3.082E+01 
   2.933E+00  1.852E+00 -2.189E+01 
  -1.236E+00 -3.366E+00 -2.188E+01 
  -1.879E+00  5.962E-01 -8.547E+00 
  -2.400E+00  1.673E+00 -1.003E+01 
  -6.807E-01  6.056E-01 -1.191E+01 
  -1.087E+00  1.408E+00 -1.401E+01 
   1.174E-01  4.033E+00 -1.600E+01 
  -1.116E+00  1.661E-01 -7.289E+00 
  -1.214E+00  4.494E-01 -7.242E+00 
  -2.491E-01 -4.943E-01 -7.326E+00 
   9.618E-01  2.850E+00 -1.793E+01 
  -7.608E-01  1.158E+00 -9.316E+00 
  -6.882E-01  5.585E-01 -9.357E+00 
  -6.573E-01  2.434E-01 -9.379E+00 
   2.721E-01 -2.316E-01  0.000E+00 
   5.627E-01  2.676E+00 -2.232E+01 
   9.577E-02  2.658E+00 -4.224E+01 
   7.138E-01  1.900E+00 -1.342E+01 
   3.151E+00  2.734E+00 -3.314E+01 
  -5.845E-01  1.387E+00 -1.354E+01 
  -3.143E+00  3.037E+00 -3.307E+01 
  -1.654E+00  9.963E-01 -1.349E+01 
  -3.384E+00  4.429E+00 -3.300E+01 
   3.301E+00  1.848E+00 -2.408E+01 
  -1.262E+00 -3.761E+00 -2.406E+01 
  -2.167E+00  2.352E-01 -8.966E+00 
  -2.853E+00  1.477E+00 -1.036E+01 
  -8.374E-01  1.174E-01 -1.212E+01 
  -1.322E+00  1.042E+00 -1.433E+01 
   1.434E-01  4.445E+00 -1.633E+01 
  -1.464E+00 -9.500E-02 -7.582E+00 
  -1.665E+00  3.926E-01 -7.503E+00 
  -1.135E-01 -8.848E-01 -7.649E+00 
   1.416E+00  2.769E+00 -1.814E+01 
  -1.175E+00  1.186E+00 -9.613E+00 
  -1.085E+00  3.838E-01 -9.626E+00 
  -3.734E-01  5.412E-03 -9.730E+00 
   1.886E+00 -1.640E+00 -5.697E-01 
   4.441E-01  1.832E+00 -2.024E+01 
   5.769E-01  2.014E+00 -1.147E+01 
  -7.297E-01  8.163E-01 -1.164E+01 
  -9.227E-01  5.181E-01 -1.159E+01 
   5.803E-01  2.494E+00 -2.458E+01 
  -5.540E-03  2.623E+00 -4.445E+01 
   6.326E-01  2.176E+00 -1.568E+01 
   3.495E+00  2.831E+00 -3.533E+01 
  -7.712E-01  1.855E+00 -1.575E+01 
  -3.487E+00  2.854E+00 -3.525E+01 
  -2.019E+00  1.283E+00 -1.570E+01 
  -3.552E+00  4.693E+00 -3.519E+01 
   3.817E-01  8.801E-01 -6.711E+00 
   3.687E+00  1.693E+00 -2.625E+01 
  -1.211E-01 -1.055E+00 -6.700E+00 
  -1.104E+00 -4.121E+00 -2.624E+01 
  -2.471E+00 -1.378E-01 -9.414E+00 
  -3.325E+00  1.264E+00 -1.071E+01 
  -9.247E-01 -4.042E-01 -1.238E+01 
  -1.568E+00  6.565E-01 -1.465E+01 
   1.882E-01  4.873E+00 -1.665E+01 
  -1.810E+00 -3.681E-01 -7.894E+00 
  -2.116E+00  3.392E-01 -7.795E+00 
  -1.889E-02 -1.249E+00 -8.036E+00 
   1.871E+00  2.694E+00 -1.839E+01 
  -1.607E+00  1.221E+00 -9.911E+00 
  -1.474E+00  1.822E-01 -9.917E+00 
  -4.906E-02 -2.350E-01 -1.007E+01 
   2.994E+00 -2.384E+00 -2.332E+00 
   6.708E-01  1.445E+00 -2.048E+01 
   6.592E-01  2.441E+00 -1.173E+01 
  -9.824E-01  5.177E-01 -1.197E+01 
  -6.061E-01  2.830E-01 -1.191E+01 
   9.543E-01  2.717E+00 -2.262E+01 
   9.197E-01  2.307E+00 -1.361E+01 
  -6.543E-01  1.015E+00 -1.386E+01 
  -1.497E+00  6.660E-01 -1.382E+01 
   2.162E-01  2.140E+00 -2.683E+01 
  -7.562E-02  2.628E+00 -4.666E+01 
   9.849E-01  2.469E+00 -1.789E+01 
   3.911E+00  2.924E+00 -3.749E+01 
  -1.023E+00  2.203E+00 -1.794E+01 
  -3.922E+00  2.593E+00 -3.739E+01 
  -2.280E+00  1.622E+00 -1.791E+01 
  -3.655E+00  5.018E+00 -3.737E+01 
   7.715E-01  1.264E+00 -8.909E+00 
   4.078E+00  1.563E+00 -2.842E+01 
  -3.133E-01 -1.060E+00 -8.965E+00 
  -9.632E-01 -4.477E+00 -2.841E+01 
  -2.789E+00 -5.263E-01 -9.892E+00 
  -3.851E+00  1.059E+00 -1.105E+01 
  -9.983E-01 -9.401E-01 -1.270E+01 
  -1.781E+00  2.591E-01 -1.503E+01 
   3.015E-01  5.274E+00 -1.702E+01 
  -2.102E+00 -6.955E-01 -8.234E+00 
  -2.558E+00  2.718E-01 -8.125E+00 
   7.295E-02 -1.643E+00 -8.417E+00 
   2.322E+00  2.587E+00 -1.867E+01 
  -2.032E+00  1.270E+00 -1.024E+01 
  -1.840E+00 -4.755E-02 -1.024E+01 
   2.436E-01 -5.056E-01 -1.043E+01 
   3.796E+00 -3.036E+00 -4.280E+00 
   9.229E-01  1.117E+00 -2.081E+01 
   7.398E-01  2.876E+00 -1.202E+01 
  -1.241E+00  2.126E-01 -1.231E+01 
  -2.756E-01  8.853E-02 -1.227E+01 
   1.331E+00  2.768E+00 -2.296E+01 
   1.139E+00  2.732E+00 -1.379E+01 
  -7.215E-01  6.188E-01 -1.417E+01 
  -1.360E+00  3.595E-01 -1.421E+01 
   9.873E-01  2.438E+00 -2.485E+01 
   3.971E-01  2.557E+00 -1.589E+01 
  -7.839E-01  1.492E+00 -1.608E+01 
  -2.000E+00  9.033E-01 -1.601E+01 
   2.522E-01  1.296E+00 -6.942E+00 
   2.433E-01 -1.199E+00 -7.000E+00 
  -6.639E-02 -1.121E-01  0.000E+00 
   1.546E-01  2.776E+00 -2.909E+01 
  -1.975E-03  2.689E+00 -4.885E+01 
   1.299E+00  2.801E+00 -2.012E+01 
   4.295E+00  3.003E+00 -3.965E+01 
  -1.210E+00  2.495E+00 -2.018E+01 
  -4.303E+00  2.328E+00 -3.954E+01 
  -2.504E+00  1.898E+00 -2.015E+01 
  -3.758E+00  5.461E+00 -3.952E+01 
   1.138E+00  1.486E+00 -1.113E+01 
   4.554E+00  1.334E+00 -3.055E+01 
  -6.840E-01 -1.329E+00 -1.119E+01 
  -8.309E-01 -4.815E+00 -3.058E+01 
  -3.161E+00 -9.017E-01 -1.040E+01 
  -4.436E+00  8.470E-01 -1.136E+01 
  -1.023E+00 -1.425E+00 -1.315E+01 
  -2.050E+00 -1.609E-01 -1.541E+01 
   4.437E-01  5.638E+00 -1.746E+01 
  -2.508E+00 -1.033E+00 -8.494E+00 
  -3.026E+00  1.752E-01 -8.468E+00 
   1.990E-01 -2.067E+00 -8.805E+00 
   2.783E+00  2.554E+00 -1.898E+01 
  -2.425E+00  1.374E+00 -1.062E+01 
  -2.211E+00 -2.837E-01 -1.058E+01 
   5.251E-01 -8.072E-01 -1.081E+01 
   4.475E+00 -3.492E+00 -6.321E+00 
   1.108E+00  7.430E-01 -2.115E+01 
   8.029E-01  3.320E+00 -1.232E+01 
  -1.487E+00 -9.814E-02 -1.268E+01 
   5.842E-02 -1.084E-01 -1.265E+01 
   1.723E+00  2.815E+00 -2.331E+01 
   1.300E+00  3.186E+00 -1.400E+01 
  -7.361E-01  2.186E-01 -1.451E+01 
  -1.215E+00  4.638E-02 -1.460E+01 
   1.403E+00  2.380E+00 -2.514E+01 
   1.318E-01  2.934E+00 -1.610E+01 
  -7.696E-01  1.151E+00 -1.646E+01 
  -2.002E+00  5.100E-01 -1.634E+01 
   1.068E-01  1.706E+00 -7.206E+00 
   5.556E-01 -1.399E+00 -7.348E+00 
   3.006E-01  1.730E+00 -2.709E+01 
   9.248E-01  2.926E+00 -1.807E+01 
  -1.099E+00  1.808E+00 -1.823E+01 
  -2.271E+00  1.262E+00 -1.825E+01 
   8.022E-01  1.722E+00 -9.094E+00 
   6.890E-02 -9.892E-01 -9.271E+00 
  -2.277E-01 -3.845E-01  0.000E+00 
   2.874E-01  2.152E+00 -3.135E+01 
   1.153E-02  2.683E+00 -5.105E+01 
   1.522E+00  3.071E+00 -2.233E+01 
   4.721E+00  2.869E+00 -4.180E+01 
  -1.348E+00  2.688E+00 -2.239E+01 
[...]
POINT_DATA    9678
 SCALARS age float 
LOOKUP_TABLE default
  3.0500E+01
  3.0500E+01
  3.0000E+01
  2.9500E+01
  2.9000E+01
  2.8500E+01
  2.8500E+01
  2.8500E+01
  2.8500E+01
  2.8000E+01
  2.7500E+01
  2.7500E+01
  2.7500E+01
  2.7500E+01
  2.7000E+01
  2.7000E+01
  2.7000E+01
  2.7000E+01
  2.6500E+01
  2.6500E+01
  2.6500E+01
  2.6500E+01
  2.6500E+01
  2.6500E+01
  2.6000E+01
  2.6000E+01
  2.6000E+01
  2.6000E+01
  2.5500E+01
  2.5500E+01
  2.5500E+01
  2.5500E+01
  2.5500E+01
  2.5500E+01
  2.5449E+01
  2.5000E+01
  2.5000E+01
  2.5000E+01
  2.5000E+01
  2.5000E+01
  2.5000E+01
  2.4990E+01
  2.4500E+01
  2.4500E+01
  2.4500E+01
  2.4500E+01
  2.4500E+01
  2.4500E+01
  2.4500E+01
  2.4480E+01
  2.4000E+01
  2.4000E+01
  2.4000E+01
  2.4000E+01
  2.4000E+01
  2.4000E+01
  2.4000E+01
  2.4000E+01
  2.3970E+01
  2.3500E+01
  2.3500E+01
  2.3500E+01
  2.3500E+01
  2.3500E+01
  2.3500E+01
  2.3500E+01
  2.3500E+01
  2.3500E+01
  2.3460E+01
  2.3000E+01
  2.3449E+01
  2.3000E+01
  2.3449E+01
  2.3000E+01
  2.3449E+01
  2.3000E+01
  2.3000E+01
  2.3000E+01
  2.3000E+01
  2.3000E+01
  2.3000E+01
  2.3000E+01
  2.2950E+01
  2.2500E+01
  2.2990E+01
  2.2500E+01
  2.2990E+01
  2.2500E+01
  2.2990E+01
  2.2500E+01
  2.2500E+01
  2.2500E+01
  2.2500E+01
  2.2500E+01
  2.2500E+01
  2.2500E+01
  2.2500E+01
  2.2500E+01
  2.2500E+01
  2.2500E+01
  2.2500E+01
  2.2491E+01
  2.2000E+01
  2.2480E+01
  2.2000E+01
  2.2480E+01
  2.2000E+01
  2.2480E+01
  2.2000E+01
  2.2000E+01
  2.2000E+01
  2.2000E+01
  2.2000E+01
  2.2000E+01
  2.2000E+01
  2.2000E+01
  2.2000E+01
  2.2000E+01
  2.2000E+01
  2.2000E+01
  2.2000E+01
  2.2000E+01
  2.2000E+01
  2.2069E+01
  2.1981E+01
  2.1500E+01
  2.1970E+01
  2.1500E+01
  2.1970E+01
  2.1500E+01
  2.1970E+01
  2.1500E+01
  2.1500E+01
  2.1500E+01
  2.1500E+01
  2.1500E+01
  2.1500E+01
  2.1500E+01
  2.1500E+01
  2.1500E+01
  2.1500E+01
  2.1500E+01
  2.1500E+01
  2.1500E+01
  2.1500E+01
  2.1500E+01
  2.1500E+01
  2.1500E+01
  2.1500E+01
  2.1500E+01
  2.1500E+01
  2.1471E+01
  2.1000E+01
  2.1460E+01
  2.1000E+01
  2.1460E+01
  2.1000E+01
  2.1460E+01
  2.1000E+01
  2.1449E+01
  2.1000E+01
  2.1449E+01
  2.1000E+01
  2.1000E+01
  2.1000E+01
  2.1000E+01
  2.1000E+01
  2.1000E+01
  2.1000E+01
  2.1000E+01
  2.1000E+01
  2.1000E+01
  2.1000E+01
  2.1000E+01
  2.1000E+01
  2.1000E+01
  2.1000E+01
  2.1000E+01
  2.1000E+01
  2.1000E+01
  2.1000E+01
  2.1000E+01
  2.1000E+01
  2.1000E+01
  2.0961E+01
  2.0500E+01
  2.0950E+01
  2.0500E+01
  2.0950E+01
  2.0500E+01
  2.0950E+01
  2.0500E+01
  2.0990E+01
  2.0500E+01
  2.0990E+01
  2.0500E+01
  2.0500E+01
  2.0500E+01
  2.0500E+01
  2.0500E+01
  2.0500E+01
  2.0500E+01
  2.0500E+01
  2.0500E+01
  2.0500E+01
  2.0500E+01
  2.0500E+01
  2.0500E+01
  2.0500E+01
  2.0500E+01
  2.0500E+01
  2.0500E+01
  2.0500E+01
  2.0500E+01
  2.0500E+01
  2.0500E+01
  2.0500E+01
  2.0500E+01
  2.0500E+01
  2.0500E+01
  2.0500E+01
  2.0500E+01
  2.0500E+01
  2.0500E+01
  2.0451E+01
  2.0000E+01
  2.0491E+01
  2.0000E+01
  2.0491E+01
  2.0000E+01
  2.0491E+01
  2.0000E+01
  2.0480E+01
  2.0000E+01
  2.0480E+01
  2.0000E+01
  2.0000E+01
  2.0000E+01
  2.0000E+01
  2.0000E+01
  2.0000E+01
  2.0000E+01
  2.0000E+01
  2.0000E+01
  2.0000E+01
  2.0000E+01
  2.0000E+01
  2.0000E+01
  2.0000E+01
  2.0000E+01
  2.0000E+01
  2.0000E+01
  2.0000E+01
  2.0000E+01
  2.0000E+01
  2.0000E+01
  2.0000E+01
  2.0000E+01
  2.0000E+01
  2.0000E+01
  2.0000E+01
  2.0000E+01
  2.0000E+01
  2.0000E+01
  2.0000E+01
  2.0000E+01
  2.0000E+01
  2.0000E+01
  2.0000E+01
  2.0068E+01
  1.9992E+01
  1.9500E+01
  1.9981E+01
  1.9500E+01
  1.9981E+01
  1.9500E+01
  1.9981E+01
  1.9500E+01
  1.9970E+01
  1.9500E+01
  1.9970E+01
  1.9500E+01
  1.9500E+01
  1.9500E+01
  1.9500E+01
  1.9500E+01
  1.9500E+01
  1.9500E+01
  1.9500E+01
  1.9500E+01
  1.9500E+01
  1.9500E+01
  1.9500E+01
  1.9500E+01
  1.9500E+01
  1.9500E+01
  1.9500E+01
  1.9500E+01
  1.9500E+01
  1.9500E+01
  1.9500E+01
  1.9500E+01
  1.9500E+01
  1.9500E+01
  1.9500E+01
  1.9500E+01
  1.9500E+01
  1.9500E+01
  1.9500E+01
  1.9500E+01
  1.9500E+01
  1.9500E+01
  1.9500E+01
  1.9500E+01
  1.9500E+01
  1.9500E+01
  1.9500E+01
  1.9500E+01
  1.9500E+01
  1.9500E+01
  1.9500E+01
  1.9500E+01
  1.9500E+01
  1.9482E+01
  1.9000E+01
  1.9471E+01
  1.9000E+01
  1.9471E+01
  1.9000E+01
  1.9471E+01
  1.9000E+01
  1.9460E+01
  1.9000E+01
  1.9460E+01
  1.9000E+01
  1.9000E+01
  1.9000E+01
  1.9000E+01
  1.9000E+01
  1.9000E+01
  1.9000E+01
  1.9000E+01
  1.9000E+01
  1.9000E+01
  1.9000E+01
  1.9000E+01
  1.9000E+01
  1.9000E+01
  1.9000E+01
  1.9000E+01
  1.9000E+01
  1.9000E+01
  1.9000E+01
  1.9000E+01
  1.9000E+01
  1.9000E+01
  1.9000E+01
  1.9000E+01
  1.9000E+01
  1.9000E+01
  1.9000E+01
  1.9000E+01
  1.9000E+01
  1.9000E+01
  1.9000E+01
  1.9000E+01
  1.9000E+01
  1.9000E+01
  1.9000E+01
  1.9000E+01
  1.9000E+01
  1.9000E+01
  1.9000E+01
  1.9000E+01
  1.9000E+01
  1.9000E+01
  1.9000E+01
  1.9000E+01
  1.9000E+01
  1.9000E+01
  1.9000E+01
  1.9068E+01
  1.8972E+01
  1.8500E+01
  1.8961E+01
  1.8500E+01
  1.8961E+01
  1.8500E+01
  1.8961E+01
  1.8500E+01
  1.8950E+01
  1.8500E+01
  1.8950E+01
  1.8500E+01
  1.8500E+01
  1.8500E+01
  1.8500E+01
  1.8500E+01
  1.8500E+01
  1.8500E+01
  1.8500E+01
  1.8500E+01
  1.8500E+01
  1.8500E+01
  1.8500E+01
  1.8500E+01
  1.8500E+01
  1.8500E+01
  1.8500E+01
  1.8500E+01
  1.8500E+01
  1.8500E+01
  1.8500E+01
  1.8500E+01
  1.8500E+01
  1.8500E+01
  1.8500E+01
  1.8500E+01
  1.8500E+01
  1.8500E+01
  1.8500E+01
  1.8500E+01
  1.8500E+01
  1.8500E+01
  1.8500E+01
  1.8500E+01
  1.8500E+01
  1.8500E+01
  1.8500E+01
  1.8500E+01
  1.8500E+01
  1.8500E+01
  1.8500E+01
  1.8500E+01
  1.8500E+01
  1.8500E+01
  1.8500E+01
  1.8500E+01
  1.8500E+01
  1.8500E+01
  1.8500E+01
  1.8500E+01
  1.8500E+01
  1.8500E+01
  1.8500E+01
  1.8500E+01
  1.8500E+01
  1.8462E+01
  1.8000E+01
  1.8451E+01
  1.8000E+01
  1.8451E+01
  1.8000E+01
  1.8451E+01
  1.8000E+01
  1.8491E+01
  1.8000E+01
  1.8491E+01
  1.8000E+01
  1.8000E+01
  1.8000E+01
  1.8000E+01
  1.8000E+01
  1.8000E+01
  1.8000E+01
  1.8000E+01
  1.8000E+01
  1.8000E+01
  1.8000E+01
  1.8000E+01
  1.8000E+01
  1.8000E+01
  1.8000E+01
  1.8000E+01
  1.8000E+01
  1.8000E+01
  1.8000E+01
  1.8000E+01
  1.8000E+01
  1.8000E+01
  1.8000E+01
  1.8000E+01
  1.8000E+01
  1.8000E+01
  1.8000E+01
  1.8000E+01
  1.8000E+01
  1.8000E+01
  1.8000E+01
  1.8000E+01
  1.8000E+01
  1.8000E+01
  1.8000E+01
  1.8000E+01
  1.8000E+01
  1.8000E+01
  1.8000E+01
  1.8000E+01
  1.8000E+01
  1.8000E+01
  1.8000E+01
  1.8000E+01
  1.8000E+01
  1.8000E+01
  1.8000E+01
  1.8000E+01
  1.8000E+01
  1.8000E+01
  1.8000E+01
  1.8000E+01
  1.8000E+01
  1.8000E+01
  1.8000E+01
  1.8000E+01
  1.8000E+01
  1.8000E+01
  1.8000E+01
  1.8000E+01
  1.7952E+01
  1.7500E+01
  1.7992E+01
  1.7500E+01
  1.7992E+01
  1.7500E+01
  1.7992E+01
  1.7500E+01
  1.7981E+01
  1.7500E+01
  1.7981E+01
  1.7500E+01
  1.7500E+01
  1.7500E+01
  1.7500E+01
  1.7500E+01
  1.7500E+01
  1.7500E+01
  1.7500E+01
  1.7500E+01
  1.7500E+01
  1.7500E+01
  1.7500E+01
  1.7500E+01
  1.7500E+01
  1.7500E+01
  1.7500E+01
  1.7500E+01
  1.7500E+01
  1.7500E+01
  1.7500E+01
  1.7500E+01
  1.7500E+01
  1.7500E+01
  1.7500E+01
  1.7500E+01
  1.7500E+01
  1.7500E+01
  1.7500E+01
  1.7500E+01
  1.7500E+01
  1.7500E+01
  1.7500E+01
  1.7500E+01
  1.7500E+01
  1.7500E+01
  1.7500E+01
  1.7500E+01
  1.7500E+01
  1.7500E+01
  1.7500E+01
  1.7500E+01
  1.7500E+01
  1.7500E+01
  1.7500E+01
  1.7500E+01
  1.7500E+01
  1.7500E+01
  1.7500E+01
  1.7500E+01
  1.7500E+01
  1.7500E+01
  1.7500E+01
  1.7500E+01
  1.7500E+01
  1.7500E+01
  1.7500E+01
  1.7500E+01
  1.7500E+01
  1.7500E+01
  1.7500E+01
  1.7500E+01
  1.7500E+01
  1.7500E+01
  1.7500E+01
  1.7500E+01
  1.7500E+01
  1.7493E+01
  1.7000E+01
  1.7482E+01
  1.7000E+01
  1.7482E+01
  1.7000E+01
  1.7482E+01
  1.7000E+01
  1.7471E+01
  1.7000E+01
  1.7471E+01
  1.7000E+01
  1.7000E+01
  1.7000E+01
  1.7000E+01
  1.7000E+01
  1.7000E+01
  1.7000E+01
  1.7000E+01
  1.7000E+01
  1.7000E+01
  1.7000E+01
  1.7000E+01
  1.7000E+01
  1.7449E+01
  1.7000E+01
  1.7000E+01
  1.7000E+01
  1.7000E+01
  1.7000E+01
  1.7000E+01
  1.7000E+01
  1.7000E+01
  1.7000E+01
  1.7000E+01
  1.7000E+01
  1.7000E+01
  1.7000E+01
  1.7000E+01
  1.7000E+01
  1.7000E+01
  1.7000E+01
  1.7000E+01
  1.7000E+01
  1.7000E+01
  1.7000E+01
  1.7000E+01
  1.7000E+01
  1.7000E+01
  1.7000E+01
  1.7000E+01
  1.7000E+01
  1.7000E+01
  1.7000E+01
  1.7000E+01
  1.7000E+01
  1.7000E+01
  1.7000E+01
  1.7000E+01
  1.7000E+01
  1.7000E+01
  1.7000E+01
  1.7000E+01
  1.7000E+01
  1.7000E+01
  1.7000E+01
  1.7000E+01
  1.7000E+01
  1.7000E+01
  1.7000E+01
  1.7000E+01
  1.7000E+01
  1.7000E+01
  1.7000E+01
  1.7000E+01
  1.7000E+01
  1.7000E+01
  1.7000E+01
  1.7000E+01
  1.7000E+01
  1.7000E+01
  1.7000E+01
  1.7000E+01
  1.7000E+01
  1.6942E+01
  1.6983E+01
  1.6500E+01
  1.6972E+01
  1.6500E+01
  1.6972E+01
  1.6500E+01
  1.6972E+01
  1.6500E+01
  1.6961E+01
  1.6500E+01
  1.6961E+01
  1.6500E+01
  1.6500E+01
  1.6500E+01
  1.6500E+01
  1.6500E+01
  1.6500E+01
  1.6500E+01
  1.6500E+01
  1.6500E+01
  1.6500E+01
  1.6500E+01
  1.6500E+01
  1.6500E+01
  1.6990E+01
  1.6500E+01
  1.6500E+01
  1.6500E+01
  1.6500E+01
  1.6500E+01
  1.6500E+01
  1.6500E+01
  1.6500E+01
  1.6500E+01
  1.6500E+01
  1.6500E+01
  1.6500E+01
  1.6500E+01
  1.6500E+01
  1.6500E+01
  1.6500E+01
  1.6500E+01
  1.6500E+01
  1.6500E+01
  1.6500E+01
  1.6500E+01
  1.6500E+01
  1.6500E+01
  1.6500E+01
  1.6500E+01
  1.6500E+01
  1.6500E+01
  1.6500E+01
  1.6500E+01
  1.6500E+01
  1.6500E+01
  1.6500E+01
  1.6500E+01
  1.6500E+01
  1.6500E+01
  1.6500E+01
  1.6500E+01
  1.6500E+01
  1.6500E+01
  1.6500E+01
  1.6500E+01
  1.6500E+01
  1.6500E+01
  1.6500E+01
  1.6500E+01
  1.6500E+01
  1.6500E+01
  1.6500E+01
  1.6500E+01
  1.6500E+01
  1.6500E+01
  1.6500E+01
  1.6500E+01
  1.6500E+01
  1.6500E+01
  1.6500E+01
  1.6500E+01
  1.6500E+01
  1.6500E+01
  1.6500E+01
  1.6500E+01
  1.6500E+01
  1.6500E+01
  1.6500E+01
  1.6500E+01
  1.6500E+01
  1.6473E+01
  1.6000E+01
  1.6462E+01
  1.6000E+01
  1.6462E+01
  1.6000E+01
  1.6462E+01
  1.6000E+01
  1.6451E+01
  1.6000E+01
  1.6451E+01
  1.6000E+01
  1.6000E+01
  1.6000E+01
  1.6000E+01
  1.6000E+01
  1.6000E+01
  1.6000E+01
  1.6000E+01
  1.6000E+01
  1.6000E+01
  1.6000E+01
  1.6000E+01
  1.6000E+01
  1.6480E+01
  1.6000E+01
  1.6000E+01
  1.6000E+01
  1.6000E+01
  1.6000E+01
  1.6000E+01
  1.6000E+01
  1.6000E+01
  1.6000E+01
  1.6000E+01
  1.6000E+01
  1.6000E+01
  1.6000E+01
  1.6000E+01
  1.6000E+01
  1.6000E+01
  1.6000E+01
  1.6000E+01
  1.6000E+01
  1.6000E+01
  1.6000E+01
  1.6000E+01
  1.6000E+01
  1.6000E+01
  1.6000E+01
  1.6000E+01
  1.6000E+01
  1.6000E+01
  1.6000E+01
  1.6000E+01
  1.6000E+01
  1.6000E+01
  1.6000E+01
  1.6000E+01
  1.6000E+01
  1.6000E+01
  1.6000E+01
  1.6000E+01
  1.6000E+01
  1.6000E+01
  1.6000E+01
  1.6000E+01
  1.6000E+01
  1.6000E+01
  1.6000E+01
  1.6000E+01
  1.6000E+01
  1.6000E+01
  1.6000E+01
  1.6000E+01
  1.6000E+01
  1.6000E+01
  1.6000E+01
  1.6000E+01
  1.6000E+01
  1.6000E+01
  1.6000E+01
  1.6000E+01
  1.6000E+01
  1.6000E+01
  1.6000E+01
  1.6000E+01
  1.6000E+01
  1.6000E+01
  1.6000E+01
  1.6000E+01
  1.6000E+01
  1.6000E+01
  1.6000E+01
  1.6000E+01
  1.6000E+01
  1.6000E+01
  1.6000E+01
  1.5963E+01
  1.5500E+01
  1.5952E+01
  1.5500E+01
  1.5952E+01
  1.5500E+01
  1.5952E+01
  1.5500E+01
  1.5992E+01
  1.5500E+01
  1.5992E+01
  1.5500E+01
  1.5500E+01
  1.5500E+01
  1.5500E+01
  1.5500E+01
  1.5500E+01
  1.5500E+01
  1.5500E+01
  1.5500E+01
  1.5500E+01
  1.5500E+01
  1.5500E+01
  1.5500E+01
  1.5970E+01
  1.5500E+01
  1.5500E+01
  1.5500E+01
  1.5500E+01
  1.5500E+01
  1.5500E+01
  1.5500E+01
  1.5500E+01
  1.5500E+01
  1.5500E+01
  1.5500E+01
  1.5500E+01
  1.5500E+01
  1.5500E+01
  1.5500E+01
  1.5500E+01
  1.5500E+01
  1.5500E+01
  1.5500E+01
  1.5500E+01
  1.5500E+01
  1.5500E+01
  1.5500E+01
  1.5500E+01
  1.5500E+01
  1.5500E+01
  1.5500E+01
  1.5500E+01
  1.5500E+01
  1.5500E+01
  1.5500E+01
  1.5500E+01
  1.5500E+01
  1.5500E+01
  1.5500E+01
  1.5500E+01
  1.5500E+01
  1.5500E+01
  1.5500E+01
  1.5500E+01
  1.5500E+01
  1.5500E+01
  1.5500E+01
  1.5500E+01
  1.5500E+01
  1.5500E+01
  1.5500E+01
  1.5500E+01
  1.5500E+01
  1.5500E+01
  1.5500E+01
  1.5500E+01
  1.5500E+01
  1.5500E+01
  1.5500E+01
  1.5500E+01
  1.5500E+01
  1.5500E+01
  1.5500E+01
  1.5500E+01
  1.5500E+01
  1.5500E+01
  1.5500E+01
  1.5500E+01
  1.5500E+01
  1.5500E+01
  1.5500E+01
  1.5500E+01
  1.5500E+01
  1.5500E+01
  1.5500E+01
  1.5500E+01
  1.5500E+01
  1.5500E+01
  1.5500E+01
  1.5500E+01
  1.5500E+01
  1.5500E+01
  1.5500E+01
  1.5500E+01
  1.5453E+01
  1.5000E+01
  1.5493E+01
  1.5000E+01
  1.5493E+01
  1.5000E+01
  1.5493E+01
  1.5000E+01
  1.5482E+01
  1.5000E+01
  1.5482E+01
  1.5000E+01
  1.5000E+01
  1.5000E+01
  1.5000E+01
  1.5000E+01
  1.5000E+01
  1.5000E+01
  1.5000E+01
  1.5000E+01
  1.5000E+01
  1.5000E+01
  1.5000E+01
  1.5000E+01
  1.5460E+01
  1.5000E+01
  1.5000E+01
  1.5000E+01
  1.5000E+01
  1.5000E+01
  1.5000E+01
  1.5000E+01
  1.5000E+01
  1.5000E+01
  1.5000E+01
  1.5000E+01
  1.5000E+01
  1.5000E+01
  1.5000E+01
  1.5000E+01
  1.5000E+01
  1.5000E+01
  1.5000E+01
  1.5000E+01
  1.5000E+01
  1.5000E+01
  1.5449E+01
  1.5000E+01
  1.5000E+01
  1.5000E+01
  1.5000E+01
  1.5000E+01
  1.5000E+01
  1.5000E+01
  1.5000E+01
  1.5000E+01
  1.5000E+01
  1.5000E+01
  1.5000E+01
  1.5000E+01
  1.5000E+01
  1.5000E+01
  1.5000E+01
  1.5000E+01
  1.5000E+01
  1.5000E+01
  1.5000E+01
  1.5000E+01
  1.5000E+01
  1.5000E+01
  1.5000E+01
  1.5000E+01
  1.5000E+01
  1.5000E+01
  1.5000E+01
  1.5000E+01
  1.5000E+01
  1.5000E+01
  1.5000E+01
  1.5000E+01
  1.5000E+01
  1.5000E+01
  1.5000E+01
  1.5000E+01
  1.5000E+01
  1.5000E+01
  1.5000E+01
  1.5000E+01
  1.5000E+01
  1.5000E+01
  1.5000E+01
  1.5000E+01
  1.5000E+01
  1.5000E+01
  1.5000E+01
  1.5000E+01
  1.5000E+01
  1.5000E+01
  1.5000E+01
  1.5000E+01
  1.5000E+01
  1.5000E+01
  1.5000E+01
  1.5000E+01
  1.5000E+01
  1.5000E+01
  1.5000E+01
  1.5000E+01
  1.5000E+01
  1.5000E+01
  1.5000E+01
  1.5000E+01
  1.5000E+01
  1.4727E+01
  1.4714E+01
  1.4696E+01
  1.4994E+01
  1.4500E+01
  1.4983E+01
  1.4500E+01
  1.4983E+01
  1.4500E+01
  1.4983E+01
  1.4500E+01
  1.4972E+01
  1.4500E+01
  1.4972E+01
  1.4500E+01
  1.4500E+01
  1.4500E+01
  1.4500E+01
  1.4500E+01
  1.4500E+01
  1.4500E+01
  1.4500E+01
  1.4500E+01
  1.4500E+01
  1.4500E+01
  1.4500E+01
  1.4500E+01
  1.4950E+01
  1.4500E+01
  1.4500E+01
  1.4500E+01
  1.4500E+01
  1.4500E+01
  1.4500E+01
  1.4500E+01
  1.4500E+01
  1.4500E+01
  1.4500E+01
  1.4500E+01
  1.4500E+01
  1.4500E+01
  1.4500E+01
  1.4500E+01
  1.4500E+01
  1.4500E+01
  1.4500E+01
  1.4500E+01
  1.4500E+01
  1.4500E+01
  1.4990E+01
  1.4500E+01
  1.4500E+01
  1.4500E+01
  1.4500E+01
  1.4500E+01
  1.4500E+01
  1.4500E+01
  1.4500E+01
  1.4500E+01
  1.4500E+01
  1.4500E+01
  1.4500E+01
  1.4500E+01
  1.4500E+01
  1.4500E+01
  1.4500E+01
  1.4500E+01
  1.4500E+01
  1.4500E+01
  1.4500E+01
  1.4500E+01
  1.4500E+01
  1.4500E+01
  1.4500E+01
  1.4500E+01
  1.4500E+01
  1.4500E+01
  1.4500E+01
  1.4500E+01
  1.4500E+01
  1.4500E+01
  1.4500E+01
  1.4500E+01
  1.4500E+01
  1.4500E+01
  1.4500E+01
  1.4500E+01
  1.4500E+01
  1.4500E+01
  1.4500E+01
  1.4500E+01
  1.4500E+01
  1.4500E+01
  1.4500E+01
  1.4500E+01
  1.4500E+01
  1.4500E+01
  1.4500E+01
  1.4500E+01
  1.4500E+01
  1.4500E+01
  1.4500E+01
  1.4500E+01
  1.4500E+01
  1.4500E+01
  1.4500E+01
  1.4500E+01
  1.4500E+01
  1.4500E+01
  1.4500E+01
  1.4500E+01
  1.4500E+01
  1.4500E+01
  1.4500E+01
  1.4500E+01
  1.4500E+01
  1.4500E+01
  1.4500E+01
  1.4500E+01
  1.4500E+01
  1.4500E+01
  1.4500E+01
  1.4500E+01
  1.4500E+01
  1.4484E+01
  1.4000E+01
  1.4473E+01
  1.4000E+01
  1.4473E+01
  1.4000E+01
  1.4473E+01
  1.4000E+01
  1.4462E+01
  1.4000E+01
  1.4462E+01
  1.4000E+01
  1.4000E+01
  1.4000E+01
  1.4000E+01
  1.4000E+01
  1.4000E+01
  1.4000E+01
  1.4000E+01
  1.4000E+01
  1.4000E+01
  1.4000E+01
  1.4000E+01
  1.4000E+01
  1.4491E+01
  1.4000E+01
  1.4000E+01
  1.4000E+01
  1.4000E+01
  1.4000E+01
  1.4000E+01
  1.4000E+01
  1.4000E+01
  1.4000E+01
  1.4000E+01
  1.4000E+01
  1.4000E+01
  1.4000E+01
  1.4000E+01
  1.4000E+01
  1.4000E+01
  1.4000E+01
  1.4000E+01
  1.4000E+01
  1.4000E+01
  1.4000E+01
  1.4480E+01
  1.4000E+01
  1.4000E+01
  1.4000E+01
  1.4000E+01
  1.4000E+01
  1.4000E+01
  1.4000E+01
  1.4000E+01
  1.4000E+01
  1.4000E+01
  1.4000E+01
  1.4000E+01
  1.4000E+01
  1.4449E+01
  1.4000E+01
  1.4000E+01
  1.4000E+01
  1.4000E+01
  1.4000E+01
  1.4000E+01
  1.4000E+01
  1.4000E+01
  1.4000E+01
  1.4000E+01
  1.4000E+01
  1.4000E+01
  1.4000E+01
  1.4000E+01
  1.4000E+01
  1.4000E+01
  1.4000E+01
  1.4000E+01
  1.4000E+01
  1.4000E+01
  1.4000E+01
  1.4000E+01
  1.4000E+01
  1.4000E+01
  1.4000E+01
  1.4000E+01
  1.4000E+01
  1.4000E+01
  1.4000E+01
  1.4000E+01
  1.4000E+01
  1.4000E+01
  1.4000E+01
  1.4000E+01
  1.4000E+01
  1.4000E+01
  1.4000E+01
  1.4000E+01
  1.4000E+01
  1.4000E+01
  1.4000E+01
  1.4000E+01
  1.4000E+01
  1.4000E+01
  1.4000E+01
  1.4000E+01
  1.4000E+01
  1.4000E+01
  1.4000E+01
  1.4000E+01
  1.4000E+01
  1.4000E+01
  1.4000E+01
  1.4000E+01
  1.4000E+01
  1.4000E+01
  1.4000E+01
  1.4000E+01
  1.4000E+01
  1.4000E+01
  1.4000E+01
  1.4000E+01
  1.4000E+01
  1.4000E+01
  1.4000E+01
  1.4000E+01
  1.4000E+01
  1.4000E+01
  1.4000E+01
  1.3974E+01
  1.3500E+01
  1.3963E+01
  1.3500E+01
  1.3963E+01
  1.3500E+01
  1.3963E+01
  1.3500E+01
  1.3952E+01
  1.3500E+01
  1.3952E+01
  1.3500E+01
  1.3500E+01
  1.3500E+01
  1.3500E+01
  1.3500E+01
  1.3500E+01
  1.3500E+01
  1.3500E+01
  1.3500E+01
  1.3500E+01
  1.3500E+01
  1.3500E+01
  1.3500E+01
  1.3981E+01
  1.3500E+01
  1.3500E+01
  1.3500E+01
  1.3500E+01
  1.3500E+01
  1.3500E+01
  1.3500E+01
  1.3500E+01
  1.3500E+01
  1.3500E+01
  1.3500E+01
  1.3500E+01
  1.3500E+01
  1.3500E+01
  1.3500E+01
  1.3500E+01
  1.3500E+01
  1.3500E+01
  1.3500E+01
  1.3500E+01
  1.3500E+01
  1.3970E+01
  1.3500E+01
  1.3500E+01
  1.3500E+01
  1.3500E+01
  1.3500E+01
  1.3500E+01
  1.3500E+01
  1.3500E+01
  1.3500E+01
  1.3500E+01
  1.3500E+01
  1.3500E+01
  1.3500E+01
  1.3990E+01
  1.3500E+01
  1.3500E+01
  1.3500E+01
  1.3500E+01
  1.3500E+01
  1.3500E+01
  1.3500E+01
  1.3500E+01
  1.3500E+01
  1.3500E+01
  1.3500E+01
  1.3500E+01
  1.3500E+01
  1.3500E+01
  1.3500E+01
  1.3500E+01
  1.3500E+01
  1.3500E+01
  1.3500E+01
  1.3500E+01
  1.3500E+01
  1.3500E+01
  1.3500E+01
  1.3500E+01
  1.3500E+01
  1.3500E+01
  1.3500E+01
  1.3500E+01
  1.3500E+01
  1.3500E+01
  1.3500E+01
  1.3500E+01
  1.3500E+01
  1.3500E+01
  1.3500E+01
  1.3500E+01
  1.3500E+01
  1.3500E+01
  1.3500E+01
  1.3500E+01
  1.3500E+01
  1.3500E+01
  1.3500E+01
  1.3500E+01
  1.3500E+01
  1.3500E+01
  1.3500E+01
  1.3500E+01
  1.3500E+01
  1.3500E+01
  1.3500E+01
  1.3500E+01
  1.3500E+01
  1.3500E+01
  1.3500E+01
  1.3500E+01
  1.3500E+01
  1.3500E+01
  1.3500E+01
  1.3500E+01
  1.3500E+01
  1.3500E+01
  1.3500E+01
  1.3500E+01
  1.3500E+01
  1.3500E+01
  1.3500E+01
  1.3500E+01
  1.3500E+01
  1.3500E+01
  1.3500E+01
  1.3500E+01
  1.3500E+01
  1.3500E+01
  1.3500E+01
  1.3500E+01
  1.3500E+01
  1.3500E+01
  1.3234E+01
  1.3500E+01
  1.3500E+01
  1.3500E+01
  1.3464E+01
  1.3000E+01
  1.3453E+01
  1.3000E+01
  1.3453E+01
  1.3000E+01
  1.3453E+01
  1.3000E+01
  1.3493E+01
  1.3000E+01
  1.3493E+01
  1.3000E+01
  1.3000E+01
  1.3000E+01
  1.3000E+01
  1.3000E+01
  1.3000E+01
  1.3000E+01
  1.3000E+01
  1.3000E+01
  1.3000E+01
  1.3000E+01
  1.3000E+01
  1.3000E+01
  1.3471E+01
  1.3000E+01
  1.3000E+01
  1.3000E+01
  1.3000E+01
  1.3000E+01
  1.3000E+01
  1.3000E+01
  1.3000E+01
  1.3000E+01
  1.3000E+01
  1.3000E+01
  1.3000E+01
  1.3000E+01
  1.3000E+01
  1.3000E+01
  1.3000E+01
  1.3000E+01
  1.3000E+01
  1.3000E+01
  1.3000E+01
  1.3000E+01
  1.3460E+01
  1.3000E+01
  1.3000E+01